 
             +---------------------------------------------------+
             |                                                   |
             |                   WANNIER90                       |
             |                                                   |
             +---------------------------------------------------+
             |                                                   |
             |        Welcome to the Maximally-Localized         |
             |        Generalized Wannier Functions code         |
             |            http://www.wannier.org                 |
             |                                                   |
             |                                                   |
             |  Wannier90 Developer Group:                       |
             |    Giovanni Pizzi    (EPFL)                       |
             |    Valerio Vitale    (Cambridge)                  |
             |    David Vanderbilt  (Rutgers University)         |
             |    Nicola Marzari    (EPFL)                       |
             |    Ivo Souza         (Universidad del Pais Vasco) |
             |    Arash A. Mostofi  (Imperial College London)    |
             |    Jonathan R. Yates (University of Oxford)       |
             |                                                   |
             |  For the full list of Wannier90 3.x authors,      |
             |  please check the code documentation and the      |
             |  README on the GitHub page of the code            |
             |                                                   |
             |                                                   |
             |  Please cite                                      |
             |                                                   |
             |  [ref] "Wannier90 as a community code:            |
             |        new features and applications",            |
             |        G. Pizzi et al., J. Phys. Cond. Matt. 32,  |
             |        165902 (2020).                             |
             |        http://doi.org/10.1088/1361-648X/ab51ff    |
             |                                                   |
             |  in any publications arising from the use of      |
             |  this code. For the method please cite            |
             |                                                   |
             |  [ref] "Maximally Localized Generalised Wannier   |
             |         Functions for Composite Energy Bands"     |
             |         N. Marzari and D. Vanderbilt              |
             |         Phys. Rev. B 56 12847 (1997)              |
             |                                                   |
             |  [ref] "Maximally Localized Wannier Functions     |
             |         for Entangled Energy Bands"               |
             |         I. Souza, N. Marzari and D. Vanderbilt    |
             |         Phys. Rev. B 65 035109 (2001)             |
             |                                                   |
             |                                                   |
             | Copyright (c) 1996-2020                           |
             |        The Wannier90 Developer Group and          |
             |        individual contributors                    |
             |                                                   |
             |      Release: 3.1.0        5th March    2020      |
             |                                                   |
             | This program is free software; you can            |
             | redistribute it and/or modify it under the terms  |
             | of the GNU General Public License as published by |
             | the Free Software Foundation; either version 2 of |
             | the License, or (at your option) any later version|
             |                                                   |
             | This program is distributed in the hope that it   |
             | will be useful, but WITHOUT ANY WARRANTY; without |
             | even the implied warranty of MERCHANTABILITY or   |
             | FITNESS FOR A PARTICULAR PURPOSE. See the GNU     |
             | General Public License for more details.          |
             |                                                   |
             | You should have received a copy of the GNU General|
             | Public License along with this program; if not,   |
             | write to the Free Software Foundation, Inc.,      |
             | 675 Mass Ave, Cambridge, MA 02139, USA.           |
             |                                                   |
             +---------------------------------------------------+
             |    Execution started on 23Nov2022 at 14:59:09     |
             +---------------------------------------------------+
 
 ******************************************************************************
 * -> Using CODATA 2006 constant values                                       *
 *    (http://physics.nist.gov/cuu/Constants/index.html)                      *
 * -> Using Bohr value from CODATA                                            *
 ******************************************************************************
 

 Running in parallel on  32 CPUs

 
                                    ------
                                    SYSTEM
                                    ------
 
                              Lattice Vectors (Ang)
                    a_1     4.588108   0.000000   0.000000
                    a_2     0.000000   3.295834   0.000000
                    a_3     0.000000   0.000000  25.288675
 
                   Unit Cell Volume:     382.40627  (Ang^3)
 
                        Reciprocal-Space Vectors (Ang^-1)
                    b_1     1.369450   0.000000   0.000000
                    b_2     0.000000   1.906402   0.000000
                    b_3     0.000000   0.000000   0.248458
  
 *----------------------------------------------------------------------------*
 |   Site       Fractional Coordinate          Cartesian Coordinate (Ang)     |
 +----------------------------------------------------------------------------+
 | P    1   0.58823   0.00000   0.45829   |    2.69888   0.00000  11.58942    |
 | P    2   0.41177   0.00000   0.54172   |    1.88923   0.00000  13.69932    |
 | P    3   0.08823   0.50000   0.54172   |    0.40482   1.64792  13.69932    |
 | P    4   0.91177   0.50000   0.45829   |    4.18329   1.64792  11.58942    |
 *----------------------------------------------------------------------------*
                                ------------
                                K-POINT GRID
                                ------------
  
             Grid size = 19 x 21 x  1      Total points =  399
  
  
 *---------------------------------- MAIN ------------------------------------*
 |  Number of Wannier Functions               :                24             |
 |  Number of Objective Wannier Functions     :                24             |
 |  Number of input Bloch states              :                60             |
 |  Output verbosity (1=low, 5=high)          :                 1             |
 |  Timing Level (1=low, 5=high)              :                 1             |
 |  Optimisation (0=memory, 3=speed)          :                 3             |
 |  Length Unit                               :               Ang             |
 |  Post-processing setup (write *.nnkp)      :                 F             |
 |  Using Gamma-only branch of algorithms     :                 F             |
 *----------------------------------------------------------------------------*
 *------------------------------- WANNIERISE ---------------------------------*
 |  Total number of iterations                :                 0             |
 |  Number of CG steps before reset           :                 5             |
 |  Trial step length for line search         :             2.000             |
 |  Convergence tolerence                     :         0.100E-09             |
 |  Convergence window                        :                -1             |
 |  Iterations between writing output         :                 1             |
 |  Iterations between backing up to disk     :               100             |
 |  Write r^2_nm to file                      :                 F             |
 |  Write xyz WF centres to file              :                 F             |
 |  Write on-site energies <0n|H|0n> to file  :                 F             |
 |  Use guiding centre to control phases      :                 F             |
 |  Use phases for initial projections        :                 F             |
 *----------------------------------------------------------------------------*
 *------------------------------- DISENTANGLE --------------------------------*
 |  Using band disentanglement                :                 T             |
 |  Total number of iterations                :              1000             |
 |  Mixing ratio                              :             0.500             |
 |  Convergence tolerence                     :         1.000E-12             |
 |  Convergence window                        :                 3             |
 *----------------------------------------------------------------------------*
 *-------------------------------- PLOTTING ----------------------------------*
 |  Plotting interpolated bandstructure       :                 T             |
 |   Number of K-path sections                :                 4             |
 |   Divisions along first K-path section     :               200             |
 |   Output format                            :          gnuplot              |
 |   Output mode                              :               s-k             |
 *----------------------------------------------------------------------------*
 |   K-space path sections:                                                   |
 |    From: Y       0.000  0.500  0.000     To: G       0.000  0.000  0.000   |
 |    From: G       0.000  0.000  0.000     To: R       0.500  0.500  0.000   |
 |    From: R       0.500  0.500  0.000     To: X       0.500  0.000  0.000   |
 |    From: X       0.500  0.000  0.000     To: G       0.000  0.000  0.000   |
 *----------------------------------------------------------------------------*
 |  Plotting Hamiltonian in WF basis          :                 T             |
 *----------------------------------------------------------------------------*
 Time to read parameters        0.079 (sec)

 *---------------------------------- K-MESH ----------------------------------*
 +----------------------------------------------------------------------------+
 |                    Distance to Nearest-Neighbour Shells                    |
 |                    ------------------------------------                    |
 |          Shell             Distance (Ang^-1)          Multiplicity         |
 |          -----             -----------------          ------------         |
 |             1                   0.072076                      2            |
 |             2                   0.090781                      2            |
 |             3                   0.115915                      4            |
 |             4                   0.144153                      2            |
 |             5                   0.170356                      4            |
 |             6                   0.181562                      2            |
 |             7                   0.195345                      4            |
 |             8                   0.216229                      2            |
 |             9                   0.231829                      4            |
 |            10                   0.234513                      4            |
 |            11                   0.248458                      2            |
 |            12                   0.258702                      4            |
 |            13                   0.264524                      4            |
 |            14                   0.272343                      2            |
 |            15                   0.274167                      8            |
 |            16                   0.281719                      4            |
 |            17                   0.282347                      4            |
 |            18                   0.287248                      4            |
 |            19                   0.288305                      2            |
 |            20                   0.301252                      8            |
 |            21                   0.302260                      4            |
 |            22                   0.307728                      4            |
 |            23                   0.308141                      4            |
 |            24                   0.316056                      8            |
 |            25                   0.329373                      4            |
 |            26                   0.339818                      8            |
 |            27                   0.340712                      4            |
 |            28                   0.341654                      8            |
 |            29                   0.347744                      4            |
 |            30                   0.360382                      2            |
 |            31                   0.363124                      2            |
 |            32                   0.368649                      4            |
 |            33                   0.370208                      4            |
 |            34                   0.371640                      4            |
 |            35                   0.375629                      8            |
 |            36                   0.376100                      8            |
 +----------------------------------------------------------------------------+
 | The b-vectors are chosen automatically                                     |
 | SVD found small singular value, Rejecting this shell and trying the next   |
 | SVD found small singular value, Rejecting this shell and trying the next   |
 | SVD found small singular value, Rejecting this shell and trying the next   |
 | SVD found small singular value, Rejecting this shell and trying the next   |
 | SVD found small singular value, Rejecting this shell and trying the next   |
 | The following shells are used:   1,  2, 11                                 |
 +----------------------------------------------------------------------------+
 |                        Shell   # Nearest-Neighbours                        |
 |                        -----   --------------------                        |
 |                          1               2                                 |
 |                          2               2                                 |
 |                         11               2                                 |
 +----------------------------------------------------------------------------+
 | Completeness relation is fully satisfied [Eq. (B1), PRB 56, 12847 (1997)]  |
 +----------------------------------------------------------------------------+
 |                  b_k Vectors (Ang^-1) and Weights (Ang^2)                  |
 |                  ----------------------------------------                  |
 |            No.         b_k(x)      b_k(y)      b_k(z)        w_b           |
 |            ---        --------------------------------     --------        |
 |             1         0.072076    0.000000    0.000000    96.246457        |
 |             2        -0.072076    0.000000    0.000000    96.246457        |
 |             3         0.000000    0.090781    0.000000    60.670757        |
 |             4         0.000000   -0.090781    0.000000    60.670757        |
 |             5         0.000000    0.000000    0.248458     8.099579        |
 |             6         0.000000    0.000000   -0.248458     8.099579        |
 +----------------------------------------------------------------------------+
 |                           b_k Directions (Ang^-1)                          |
 |                           -----------------------                          |
 |            No.           x           y           z                         |
 |            ---        --------------------------------                     |
 |             1         0.072076    0.000000    0.000000                     |
 |             2         0.000000    0.090781    0.000000                     |
 |             3         0.000000    0.000000    0.248458                     |
 +----------------------------------------------------------------------------+
  
 Time to get kmesh              0.222 (sec)
 *============================================================================*
 |                              MEMORY ESTIMATE                               |
 |         Maximum RAM allocated during each phase of the calculation         |
 *============================================================================*
 |                        Disentanglement          197.25 Mb                  |
 |                            Wannierise:           67.45 Mb                  |
 |                          plot_wannier:           67.45 Mb                  |
 *----------------------------------------------------------------------------*
  
 Starting a new Wannier90 calculation ...


 Reading overlaps from wannier90.mmn    : File generated by VASP: P

 Reading projections from wannier90.amn : File generated by VASP: P

 Time to read overlaps          6.535 (sec)

 *------------------------------- DISENTANGLE --------------------------------*
 +----------------------------------------------------------------------------+
 |                              Energy  Windows                               |
 |                              ---------------                               |
 |                   Outer:  -17.80585  to    8.24505  (eV)                   |
 |                   Inner:   -5.80000  to    0.81000  (eV)                   |
 +----------------------------------------------------------------------------+
   Number of target bands to extract:   24

                   Unitarised projection of Wannier functions                  
                   ------------------------------------------                  
   A_mn = <psi_m|g_n> --> S = A.A^+ --> U = S^-1/2.A
   In dis_project... done
   Using an inner window (linner = T)
   In dis_proj_froz... done

                   Extraction of optimally-connected subspace                  
                   ------------------------------------------                  
 +---------------------------------------------------------------------+<-- DIS
 |  Iter     Omega_I(i-1)      Omega_I(i)      Delta (frac.)    Time   |<-- DIS
 +---------------------------------------------------------------------+<-- DIS
       1     152.87685236     127.74766250       1.967E-01      0.00    <-- DIS
       2     128.44641445     119.64065907       7.360E-02      0.03    <-- DIS
       3     121.72945137     113.94345842       6.833E-02      0.06    <-- DIS
       4     115.88311057     109.47807175       5.851E-02      0.09    <-- DIS
       5     111.07277649     105.85422625       4.930E-02      0.11    <-- DIS
       6     107.12932175     102.84309492       4.168E-02      0.14    <-- DIS
       7     103.86271679     100.29450868       3.558E-02      0.17    <-- DIS
       8     101.11870643      98.10497615       3.072E-02      0.19    <-- DIS
       9      98.78106313      96.20059971       2.682E-02      0.22    <-- DIS
      10      96.76375934      94.52705212       2.366E-02      0.25    <-- DIS
      11      95.00297056      93.04339469       2.106E-02      0.28    <-- DIS
      12      93.45082169      91.71811654       1.889E-02      0.30    <-- DIS
      13      92.07086825      90.52651401       1.706E-02      0.34    <-- DIS
      14      90.83491939      89.44890744       1.550E-02      0.36    <-- DIS
      15      89.72081877      88.46939745       1.415E-02      0.39    <-- DIS
      16      88.71088808      87.57497845       1.297E-02      0.41    <-- DIS
      17      87.79082469      86.75489426       1.194E-02      0.44    <-- DIS
      18      86.94891067      86.00016143       1.103E-02      0.47    <-- DIS
      19      86.17543704      85.30321105       1.023E-02      0.49    <-- DIS
      20      85.46227822      84.65761561       9.505E-03      0.52    <-- DIS
      21      84.80257274      84.05787801       8.859E-03      0.55    <-- DIS
      22      84.19048020      83.49926659       8.278E-03      0.57    <-- DIS
      23      83.62099382      82.97768467       7.753E-03      0.60    <-- DIS
      24      83.08979381      82.48956640       7.276E-03      0.62    <-- DIS
      25      82.59313151      82.03179275       6.843E-03      0.65    <-- DIS
      26      82.12773677      81.60162322       6.447E-03      0.67    <-- DIS
      27      81.69074315      81.19663987       6.085E-03      0.70    <-- DIS
      28      81.27962702      80.81470108       5.753E-03      0.72    <-- DIS
      29      80.89215750      80.45390315       5.447E-03      0.75    <-- DIS
      30      80.52635513      80.11254812       5.165E-03      0.77    <-- DIS
      31      80.18045731      79.78911674       4.905E-03      0.80    <-- DIS
      32      79.85288943      79.48224561       4.663E-03      0.83    <-- DIS
      33      79.54224043      79.19070770       4.439E-03      0.85    <-- DIS
      34      79.24724219      78.91339575       4.231E-03      0.88    <-- DIS
      35      78.96675185      78.64930804       4.036E-03      0.90    <-- DIS
      36      78.69973679      78.39753611       3.855E-03      0.93    <-- DIS
      37      78.44526161      78.15725415       3.685E-03      0.95    <-- DIS
      38      78.20247700      77.92770979       3.526E-03      0.98    <-- DIS
      39      77.97061004      77.70821615       3.377E-03      1.00    <-- DIS
      40      77.74895579      77.49814477       3.236E-03      1.03    <-- DIS
      41      77.53686994      77.29691956       3.104E-03      1.05    <-- DIS
      42      77.33376243      77.10401140       2.980E-03      1.08    <-- DIS
      43      77.13909180      76.91893341       2.862E-03      1.10    <-- DIS
      44      76.95236027      76.74123679       2.751E-03      1.13    <-- DIS
      45      76.77310937      76.57050712       2.646E-03      1.15    <-- DIS
      46      76.60091609      76.40636109       2.546E-03      1.18    <-- DIS
      47      76.43538948      76.24844361       2.452E-03      1.20    <-- DIS
      48      76.27616763      76.09642519       2.362E-03      1.23    <-- DIS
      49      76.12291497      75.94999966       2.277E-03      1.25    <-- DIS
      50      75.97531988      75.80888209       2.195E-03      1.28    <-- DIS
      51      75.83309254      75.67280695       2.118E-03      1.30    <-- DIS
      52      75.69596303      75.54152645       2.044E-03      1.33    <-- DIS
      53      75.56367960      75.41480904       1.974E-03      1.35    <-- DIS
      54      75.43600714      75.29243808       1.907E-03      1.38    <-- DIS
      55      75.31272577      75.17421063       1.843E-03      1.40    <-- DIS
      56      75.19362962      75.05993635       1.781E-03      1.43    <-- DIS
      57      75.07852570      74.94943651       1.722E-03      1.46    <-- DIS
      58      74.96723286      74.84254310       1.666E-03      1.48    <-- DIS
      59      74.85958087      74.73909801       1.612E-03      1.51    <-- DIS
      60      74.75540961      74.63895229       1.560E-03      1.53    <-- DIS
      61      74.65456827      74.54196548       1.511E-03      1.56    <-- DIS
      62      74.55691471      74.44800500       1.463E-03      1.59    <-- DIS
      63      74.46231477      74.35694557       1.417E-03      1.61    <-- DIS
      64      74.37064174      74.26866874       1.373E-03      1.64    <-- DIS
      65      74.28177583      74.18306238       1.331E-03      1.66    <-- DIS
      66      74.19560367      74.10002024       1.290E-03      1.69    <-- DIS
      67      74.11201789      74.01944161       1.251E-03      1.71    <-- DIS
      68      74.03091669      73.94123092       1.213E-03      1.74    <-- DIS
      69      73.95220353      73.86529741       1.177E-03      1.76    <-- DIS
      70      73.87578670      73.79155482       1.141E-03      1.79    <-- DIS
      71      73.80157909      73.71992112       1.108E-03      1.81    <-- DIS
      72      73.72949786      73.65031823       1.075E-03      1.84    <-- DIS
      73      73.65946416      73.58267181       1.044E-03      1.86    <-- DIS
      74      73.59140294      73.51691099       1.013E-03      1.89    <-- DIS
      75      73.52524265      73.45296820       9.840E-04      1.91    <-- DIS
      76      73.46091510      73.39077896       9.557E-04      1.94    <-- DIS
      77      73.39835519      73.33028171       9.283E-04      1.96    <-- DIS
      78      73.33750081      73.27141763       9.019E-04      1.99    <-- DIS
      79      73.27829259      73.21413052       8.764E-04      2.01    <-- DIS
      80      73.22067382      73.15836661       8.517E-04      2.04    <-- DIS
      81      73.16459025      73.10407445       8.278E-04      2.06    <-- DIS
      82      73.10998997      73.05120479       8.047E-04      2.09    <-- DIS
      83      73.05682328      72.99971044       7.824E-04      2.11    <-- DIS
      84      73.00504259      72.94954619       7.608E-04      2.14    <-- DIS
      85      72.95460229      72.90066870       7.398E-04      2.16    <-- DIS
      86      72.90545865      72.85303638       7.196E-04      2.19    <-- DIS
      87      72.85756972      72.80660933       6.999E-04      2.21    <-- DIS
      88      72.81089525      72.76134924       6.809E-04      2.24    <-- DIS
      89      72.76539660      72.71721932       6.625E-04      2.26    <-- DIS
      90      72.72103667      72.67418422       6.447E-04      2.29    <-- DIS
      91      72.67777980      72.63220996       6.274E-04      2.31    <-- DIS
      92      72.63559171      72.59126386       6.106E-04      2.35    <-- DIS
      93      72.59443945      72.55131450       5.944E-04      2.37    <-- DIS
      94      72.55429131      72.51233162       5.787E-04      2.40    <-- DIS
      95      72.51511681      72.47428612       5.634E-04      2.42    <-- DIS
      96      72.47688656      72.43714995       5.486E-04      2.45    <-- DIS
      97      72.43957231      72.40089613       5.342E-04      2.47    <-- DIS
      98      72.40314681      72.36549861       5.203E-04      2.50    <-- DIS
      99      72.36758382      72.33093232       5.067E-04      2.52    <-- DIS
     100      72.33285804      72.29717308       4.936E-04      2.55    <-- DIS
     101      72.29894510      72.26419756       4.808E-04      2.58    <-- DIS
     102      72.26582146      72.23198327       4.685E-04      2.60    <-- DIS
     103      72.23346444      72.20050848       4.565E-04      2.63    <-- DIS
     104      72.20185213      72.16975224       4.448E-04      2.65    <-- DIS
     105      72.17096340      72.13969430       4.335E-04      2.68    <-- DIS
     106      72.14077785      72.11031513       4.224E-04      2.70    <-- DIS
     107      72.11127575      72.08159583       4.118E-04      2.73    <-- DIS
     108      72.08243807      72.05351816       4.014E-04      2.75    <-- DIS
     109      72.05424641      72.02606449       3.913E-04      2.78    <-- DIS
     110      72.02668298      71.99921776       3.815E-04      2.80    <-- DIS
     111      71.99973059      71.97296148       3.719E-04      2.83    <-- DIS
     112      71.97337262      71.94727972       3.627E-04      2.85    <-- DIS
     113      71.94759298      71.92215703       3.537E-04      2.88    <-- DIS
     114      71.92237613      71.89757850       3.449E-04      2.90    <-- DIS
     115      71.89770699      71.87352967       3.364E-04      2.93    <-- DIS
     116      71.87357102      71.84999656       3.281E-04      2.95    <-- DIS
     117      71.84995410      71.82696561       3.201E-04      2.98    <-- DIS
     118      71.82684258      71.80442372       3.122E-04      3.00    <-- DIS
     119      71.80422323      71.78235817       3.046E-04      3.03    <-- DIS
     120      71.78208324      71.76075666       2.972E-04      3.05    <-- DIS
     121      71.76041020      71.73960727       2.900E-04      3.08    <-- DIS
     122      71.73919209      71.71889841       2.830E-04      3.10    <-- DIS
     123      71.71841725      71.69861890       2.761E-04      3.13    <-- DIS
     124      71.69807437      71.67875785       2.695E-04      3.15    <-- DIS
     125      71.67815251      71.65930474       2.630E-04      3.18    <-- DIS
     126      71.65864105      71.64024934       2.567E-04      3.20    <-- DIS
     127      71.63952966      71.62158174       2.506E-04      3.23    <-- DIS
     128      71.62080838      71.60329232       2.446E-04      3.25    <-- DIS
     129      71.60246748      71.58537173       2.388E-04      3.28    <-- DIS
     130      71.58449758      71.56781092       2.332E-04      3.30    <-- DIS
     131      71.56688952      71.55060110       2.276E-04      3.33    <-- DIS
     132      71.54963445      71.53373372       2.223E-04      3.35    <-- DIS
     133      71.53272376      71.51720049       2.171E-04      3.38    <-- DIS
     134      71.51614909      71.50099336       2.120E-04      3.40    <-- DIS
     135      71.49990233      71.48510450       2.070E-04      3.43    <-- DIS
     136      71.48397559      71.46952633       2.022E-04      3.46    <-- DIS
     137      71.46836121      71.45425144       1.975E-04      3.48    <-- DIS
     138      71.45305176      71.43927268       1.929E-04      3.51    <-- DIS
     139      71.43804000      71.42458306       1.884E-04      3.53    <-- DIS
     140      71.42331891      71.41017580       1.841E-04      3.56    <-- DIS
     141      71.40888166      71.39604433       1.798E-04      3.58    <-- DIS
     142      71.39472160      71.38218222       1.757E-04      3.61    <-- DIS
     143      71.38083229      71.36858325       1.716E-04      3.63    <-- DIS
     144      71.36720744      71.35524137       1.677E-04      3.66    <-- DIS
     145      71.35384095      71.34215067       1.639E-04      3.68    <-- DIS
     146      71.34072688      71.32930543       1.601E-04      3.71    <-- DIS
     147      71.32785946      71.31670006       1.565E-04      3.73    <-- DIS
     148      71.31523307      71.30432914       1.529E-04      3.76    <-- DIS
     149      71.30284224      71.29218738       1.495E-04      3.78    <-- DIS
     150      71.29068164      71.28026964       1.461E-04      3.81    <-- DIS
     151      71.27874611      71.26857092       1.428E-04      3.83    <-- DIS
     152      71.26703059      71.25708635       1.396E-04      3.86    <-- DIS
     153      71.25553019      71.24581117       1.364E-04      3.88    <-- DIS
     154      71.24424012      71.23474078       1.334E-04      3.91    <-- DIS
     155      71.23315573      71.22387067       1.304E-04      3.93    <-- DIS
     156      71.22227249      71.21319646       1.274E-04      3.96    <-- DIS
     157      71.21158598      71.20271388       1.246E-04      3.98    <-- DIS
     158      71.20109192      71.19241877       1.218E-04      4.01    <-- DIS
     159      71.19078611      71.18230708       1.191E-04      4.03    <-- DIS
     160      71.18066447      71.17237487       1.165E-04      4.06    <-- DIS
     161      71.17072303      71.16261827       1.139E-04      4.08    <-- DIS
     162      71.16095791      71.15303356       1.114E-04      4.11    <-- DIS
     163      71.15136535      71.14361705       1.089E-04      4.13    <-- DIS
     164      71.14194165      71.13436521       1.065E-04      4.16    <-- DIS
     165      71.13268323      71.12527454       1.042E-04      4.18    <-- DIS
     166      71.12358659      71.11634166       1.019E-04      4.21    <-- DIS
     167      71.11464833      71.10756328       9.964E-05      4.23    <-- DIS
     168      71.10586512      71.09893615       9.746E-05      4.26    <-- DIS
     169      71.09723371      71.09045715       9.532E-05      4.28    <-- DIS
     170      71.08875095      71.08212321       9.324E-05      4.31    <-- DIS
     171      71.08041374      71.07393134       9.121E-05      4.33    <-- DIS
     172      71.07221909      71.06587861       8.922E-05      4.37    <-- DIS
     173      71.06416405      71.05796218       8.728E-05      4.39    <-- DIS
     174      71.05624575      71.05017928       8.538E-05      4.42    <-- DIS
     175      71.04846141      71.04252719       8.353E-05      4.44    <-- DIS
     176      71.04080830      71.03500326       8.172E-05      4.47    <-- DIS
     177      71.03328375      71.02760491       7.995E-05      4.49    <-- DIS
     178      71.02588516      71.02032963       7.822E-05      4.52    <-- DIS
     179      71.01861000      71.01317494       7.654E-05      4.54    <-- DIS
     180      71.01145579      71.00613844       7.489E-05      4.57    <-- DIS
     181      71.00442012      70.99921779       7.327E-05      4.59    <-- DIS
     182      70.99750061      70.99241069       7.170E-05      4.62    <-- DIS
     183      70.99069497      70.98571490       7.016E-05      4.64    <-- DIS
     184      70.98400095      70.97912823       6.865E-05      4.67    <-- DIS
     185      70.97741634      70.97264856       6.718E-05      4.69    <-- DIS
     186      70.97093900      70.96627379       6.574E-05      4.72    <-- DIS
     187      70.96456682      70.96000188       6.433E-05      4.74    <-- DIS
     188      70.95829777      70.95383084       6.296E-05      4.77    <-- DIS
     189      70.95212982      70.94775872       6.161E-05      4.79    <-- DIS
     190      70.94606104      70.94178363       6.029E-05      4.82    <-- DIS
     191      70.94008950      70.93590369       5.901E-05      4.84    <-- DIS
     192      70.93421333      70.93011710       5.775E-05      4.87    <-- DIS
     193      70.92843072      70.92442207       5.652E-05      4.89    <-- DIS
     194      70.92273986      70.91881687       5.532E-05      4.92    <-- DIS
     195      70.91713902      70.91329980       5.414E-05      4.94    <-- DIS
     196      70.91162649      70.90786919       5.299E-05      4.97    <-- DIS
     197      70.90620060      70.90252344       5.186E-05      4.99    <-- DIS
     198      70.90085972      70.89726094       5.076E-05      5.02    <-- DIS
     199      70.89560226      70.89208014       4.968E-05      5.04    <-- DIS
     200      70.89042665      70.88697953       4.863E-05      5.07    <-- DIS
     201      70.88533136      70.88195762       4.760E-05      5.09    <-- DIS
     202      70.88031491      70.87701296       4.659E-05      5.12    <-- DIS
     203      70.87537584      70.87214412       4.560E-05      5.14    <-- DIS
     204      70.87051271      70.86734972       4.463E-05      5.17    <-- DIS
     205      70.86572413      70.86262839       4.369E-05      5.19    <-- DIS
     206      70.86100874      70.85797879       4.276E-05      5.22    <-- DIS
     207      70.85636519      70.85339964       4.185E-05      5.24    <-- DIS
     208      70.85179217      70.84888965       4.097E-05      5.27    <-- DIS
     209      70.84728841      70.84444757       4.010E-05      5.29    <-- DIS
     210      70.84285265      70.84007218       3.925E-05      5.32    <-- DIS
     211      70.83848367      70.83576229       3.842E-05      5.34    <-- DIS
     212      70.83418026      70.83151672       3.760E-05      5.37    <-- DIS
     213      70.82994125      70.82733433       3.681E-05      5.39    <-- DIS
     214      70.82576549      70.82321400       3.603E-05      5.42    <-- DIS
     215      70.82165184      70.81915462       3.526E-05      5.44    <-- DIS
     216      70.81759922      70.81515512       3.451E-05      5.47    <-- DIS
     217      70.81360653      70.81121445       3.378E-05      5.49    <-- DIS
     218      70.80967272      70.80733157       3.306E-05      5.52    <-- DIS
     219      70.80579675      70.80350548       3.236E-05      5.54    <-- DIS
     220      70.80197761      70.79973518       3.167E-05      5.57    <-- DIS
     221      70.79821431      70.79601970       3.100E-05      5.59    <-- DIS
     222      70.79450586      70.79235809       3.034E-05      5.62    <-- DIS
     223      70.79085133      70.78874943       2.969E-05      5.64    <-- DIS
     224      70.78724977      70.78519279       2.906E-05      5.67    <-- DIS
     225      70.78370026      70.78168729       2.844E-05      5.69    <-- DIS
     226      70.78020192      70.77823205       2.783E-05      5.72    <-- DIS
     227      70.77675386      70.77482622       2.724E-05      5.74    <-- DIS
     228      70.77335523      70.77146894       2.665E-05      5.77    <-- DIS
     229      70.77000517      70.76815940       2.608E-05      5.79    <-- DIS
     230      70.76670287      70.76489679       2.552E-05      5.82    <-- DIS
     231      70.76344751      70.76168031       2.497E-05      5.84    <-- DIS
     232      70.76023829      70.75850920       2.444E-05      5.87    <-- DIS
     233      70.75707444      70.75538269       2.391E-05      5.89    <-- DIS
     234      70.75395520      70.75230003       2.339E-05      5.92    <-- DIS
     235      70.75087982      70.74926049       2.289E-05      5.94    <-- DIS
     236      70.74784756      70.74626335       2.239E-05      5.97    <-- DIS
     237      70.74485771      70.74330792       2.191E-05      5.99    <-- DIS
     238      70.74190956      70.74039350       2.143E-05      6.02    <-- DIS
     239      70.73900241      70.73751942       2.096E-05      6.04    <-- DIS
     240      70.73613560      70.73468500       2.051E-05      6.07    <-- DIS
     241      70.73330845      70.73188961       2.006E-05      6.09    <-- DIS
     242      70.73052031      70.72913260       1.962E-05      6.12    <-- DIS
     243      70.72777055      70.72641335       1.919E-05      6.14    <-- DIS
     244      70.72505854      70.72373125       1.877E-05      6.17    <-- DIS
     245      70.72238365      70.72108568       1.835E-05      6.19    <-- DIS
     246      70.71974530      70.71847607       1.795E-05      6.22    <-- DIS
     247      70.71714287      70.71590183       1.755E-05      6.24    <-- DIS
     248      70.71457581      70.71336238       1.716E-05      6.27    <-- DIS
     249      70.71204352      70.71085718       1.678E-05      6.29    <-- DIS
     250      70.70954546      70.70838568       1.640E-05      6.32    <-- DIS
     251      70.70708108      70.70594734       1.603E-05      6.34    <-- DIS
     252      70.70464983      70.70354162       1.567E-05      6.37    <-- DIS
     253      70.70225120      70.70116802       1.532E-05      6.40    <-- DIS
     254      70.69988465      70.69882602       1.497E-05      6.42    <-- DIS
     255      70.69754968      70.69651513       1.463E-05      6.45    <-- DIS
     256      70.69524580      70.69423486       1.430E-05      6.47    <-- DIS
     257      70.69297250      70.69198472       1.397E-05      6.50    <-- DIS
     258      70.69072932      70.68976424       1.365E-05      6.52    <-- DIS
     259      70.68851577      70.68757297       1.334E-05      6.55    <-- DIS
     260      70.68633140      70.68541044       1.303E-05      6.57    <-- DIS
     261      70.68417574      70.68327621       1.273E-05      6.60    <-- DIS
     262      70.68204835      70.68116984       1.243E-05      6.62    <-- DIS
     263      70.67994880      70.67909089       1.214E-05      6.65    <-- DIS
     264      70.67787664      70.67703896       1.185E-05      6.67    <-- DIS
     265      70.67583146      70.67501362       1.157E-05      6.70    <-- DIS
     266      70.67381284      70.67301446       1.130E-05      6.72    <-- DIS
     267      70.67182037      70.67104109       1.103E-05      6.75    <-- DIS
     268      70.66985365      70.66909310       1.076E-05      6.77    <-- DIS
     269      70.66791229      70.66717012       1.050E-05      6.80    <-- DIS
     270      70.66599591      70.66527176       1.025E-05      6.82    <-- DIS
     271      70.66410411      70.66339766       9.997E-06      6.85    <-- DIS
     272      70.66223653      70.66154744       9.752E-06      6.87    <-- DIS
     273      70.66039280      70.65972074       9.511E-06      6.90    <-- DIS
     274      70.65857256      70.65791722       9.275E-06      6.92    <-- DIS
     275      70.65677546      70.65613651       9.043E-06      6.95    <-- DIS
     276      70.65500114      70.65437830       8.815E-06      6.98    <-- DIS
     277      70.65324928      70.65264222       8.592E-06      7.00    <-- DIS
     278      70.65151952      70.65092797       8.373E-06      7.03    <-- DIS
     279      70.64981155      70.64923521       8.158E-06      7.05    <-- DIS
     280      70.64812504      70.64756362       7.947E-06      7.08    <-- DIS
     281      70.64645966      70.64591290       7.739E-06      7.10    <-- DIS
     282      70.64481511      70.64428273       7.536E-06      7.13    <-- DIS
     283      70.64319108      70.64267281       7.336E-06      7.15    <-- DIS
     284      70.64158727      70.64108285       7.141E-06      7.18    <-- DIS
     285      70.64000337      70.63951256       6.948E-06      7.20    <-- DIS
     286      70.63843910      70.63796164       6.759E-06      7.23    <-- DIS
     287      70.63689417      70.63642981       6.574E-06      7.25    <-- DIS
     288      70.63536830      70.63491680       6.392E-06      7.28    <-- DIS
     289      70.63386121      70.63342234       6.213E-06      7.30    <-- DIS
     290      70.63237263      70.63194615       6.038E-06      7.32    <-- DIS
     291      70.63090229      70.63048798       5.866E-06      7.35    <-- DIS
     292      70.62944992      70.62904755       5.697E-06      7.37    <-- DIS
     293      70.62801527      70.62762463       5.531E-06      7.40    <-- DIS
     294      70.62659808      70.62621895       5.368E-06      7.42    <-- DIS
     295      70.62519810      70.62483028       5.208E-06      7.45    <-- DIS
     296      70.62381509      70.62345837       5.051E-06      7.47    <-- DIS
     297      70.62244880      70.62210297       4.897E-06      7.50    <-- DIS
     298      70.62109899      70.62076386       4.745E-06      7.53    <-- DIS
     299      70.61976543      70.61944081       4.597E-06      7.55    <-- DIS
     300      70.61844789      70.61813359       4.451E-06      7.57    <-- DIS
     301      70.61714615      70.61684197       4.307E-06      7.60    <-- DIS
     302      70.61585997      70.61556574       4.167E-06      7.62    <-- DIS
     303      70.61458914      70.61430468       4.028E-06      7.65    <-- DIS
     304      70.61333345      70.61305858       3.893E-06      7.67    <-- DIS
     305      70.61209268      70.61182722       3.759E-06      7.70    <-- DIS
     306      70.61086662      70.61061041       3.628E-06      7.72    <-- DIS
     307      70.60965507      70.60940795       3.500E-06      7.75    <-- DIS
     308      70.60845782      70.60821962       3.374E-06      7.77    <-- DIS
     309      70.60727469      70.60704524       3.250E-06      7.80    <-- DIS
     310      70.60610546      70.60588462       3.128E-06      7.82    <-- DIS
     311      70.60494995      70.60473756       3.008E-06      7.85    <-- DIS
     312      70.60380797      70.60360388       2.891E-06      7.87    <-- DIS
     313      70.60267933      70.60248339       2.775E-06      7.90    <-- DIS
     314      70.60156386      70.60137592       2.662E-06      7.92    <-- DIS
     315      70.60046136      70.60028129       2.551E-06      7.95    <-- DIS
     316      70.59937167      70.59919932       2.441E-06      7.97    <-- DIS
     317      70.59829460      70.59812983       2.334E-06      8.00    <-- DIS
     318      70.59722998      70.59707267       2.228E-06      8.02    <-- DIS
     319      70.59617766      70.59602766       2.125E-06      8.05    <-- DIS
     320      70.59513745      70.59499464       2.023E-06      8.07    <-- DIS
     321      70.59410919      70.59397344       1.923E-06      8.10    <-- DIS
     322      70.59309273      70.59296392       1.825E-06      8.12    <-- DIS
     323      70.59208791      70.59196591       1.728E-06      8.15    <-- DIS
     324      70.59109456      70.59097925       1.633E-06      8.17    <-- DIS
     325      70.59011254      70.59000380       1.540E-06      8.20    <-- DIS
     326      70.58914169      70.58903941       1.449E-06      8.22    <-- DIS
     327      70.58818186      70.58808592       1.359E-06      8.25    <-- DIS
     328      70.58723291      70.58714321       1.271E-06      8.27    <-- DIS
     329      70.58629469      70.58621111       1.184E-06      8.30    <-- DIS
     330      70.58536706      70.58528949       1.099E-06      8.32    <-- DIS
     331      70.58444989      70.58437822       1.015E-06      8.35    <-- DIS
     332      70.58354302      70.58347716       9.331E-07      8.38    <-- DIS
     333      70.58264633      70.58258617       8.523E-07      8.40    <-- DIS
     334      70.58175968      70.58170512       7.730E-07      8.43    <-- DIS
     335      70.58088293      70.58083388       6.950E-07      8.45    <-- DIS
     336      70.58001597      70.57997232       6.185E-07      8.48    <-- DIS
     337      70.57915866      70.57912032       5.432E-07      8.50    <-- DIS
     338      70.57831088      70.57827776       4.693E-07      8.53    <-- DIS
     339      70.57747250      70.57744450       3.967E-07      8.55    <-- DIS
     340      70.57664340      70.57662043       3.254E-07      8.58    <-- DIS
     341      70.57582346      70.57580544       2.553E-07      8.60    <-- DIS
     342      70.57501256      70.57499940       1.864E-07      8.63    <-- DIS
     343      70.57421058      70.57420220       1.188E-07      8.65    <-- DIS
     344      70.57341741      70.57341372       5.233E-08      8.68    <-- DIS
     345      70.57263294      70.57263386      -1.297E-08      8.70    <-- DIS
     346      70.57185705      70.57186250      -7.713E-08      8.73    <-- DIS
     347      70.57108964      70.57109953      -1.402E-07      8.75    <-- DIS
     348      70.57033060      70.57034486      -2.021E-07      8.78    <-- DIS
     349      70.56957981      70.56959837      -2.629E-07      8.80    <-- DIS
     350      70.56883718      70.56885995      -3.227E-07      8.83    <-- DIS
     351      70.56810260      70.56812951      -3.814E-07      8.85    <-- DIS
     352      70.56737597      70.56740695      -4.391E-07      8.88    <-- DIS
     353      70.56665718      70.56669217      -4.958E-07      8.90    <-- DIS
     354      70.56594615      70.56598507      -5.515E-07      8.93    <-- DIS
     355      70.56524277      70.56528554      -6.062E-07      8.95    <-- DIS
     356      70.56454694      70.56459351      -6.599E-07      8.98    <-- DIS
     357      70.56385858      70.56390887      -7.127E-07      9.00    <-- DIS
     358      70.56317758      70.56323153      -7.646E-07      9.03    <-- DIS
     359      70.56250386      70.56256141      -8.156E-07      9.05    <-- DIS
     360      70.56183732      70.56189840      -8.657E-07      9.08    <-- DIS
     361      70.56117787      70.56124243      -9.148E-07      9.10    <-- DIS
     362      70.56052544      70.56059340      -9.632E-07      9.13    <-- DIS
     363      70.55987992      70.55995123      -1.011E-06      9.15    <-- DIS
     364      70.55924124      70.55931584      -1.057E-06      9.18    <-- DIS
     365      70.55860931      70.55868714      -1.103E-06      9.20    <-- DIS
     366      70.55798405      70.55806506      -1.148E-06      9.23    <-- DIS
     367      70.55736537      70.55744950      -1.192E-06      9.25    <-- DIS
     368      70.55675319      70.55684038      -1.236E-06      9.28    <-- DIS
     369      70.55614744      70.55623764      -1.278E-06      9.30    <-- DIS
     370      70.55554804      70.55564120      -1.320E-06      9.33    <-- DIS
     371      70.55495491      70.55505097      -1.361E-06      9.35    <-- DIS
     372      70.55436796      70.55446687      -1.402E-06      9.38    <-- DIS
     373      70.55378714      70.55388885      -1.442E-06      9.40    <-- DIS
     374      70.55321235      70.55331682      -1.481E-06      9.43    <-- DIS
     375      70.55264354      70.55275071      -1.519E-06      9.45    <-- DIS
     376      70.55208063      70.55219045      -1.557E-06      9.48    <-- DIS
     377      70.55152354      70.55163597      -1.594E-06      9.50    <-- DIS
     378      70.55097220      70.55108719      -1.630E-06      9.53    <-- DIS
     379      70.55042656      70.55054406      -1.666E-06      9.55    <-- DIS
     380      70.54988653      70.55000651      -1.701E-06      9.58    <-- DIS
     381      70.54935206      70.54947446      -1.735E-06      9.60    <-- DIS
     382      70.54882307      70.54894785      -1.769E-06      9.63    <-- DIS
     383      70.54829950      70.54842662      -1.802E-06      9.65    <-- DIS
     384      70.54778129      70.54791071      -1.834E-06      9.68    <-- DIS
     385      70.54726836      70.54740004      -1.866E-06      9.70    <-- DIS
     386      70.54676067      70.54689456      -1.898E-06      9.73    <-- DIS
     387      70.54625815      70.54639421      -1.929E-06      9.75    <-- DIS
     388      70.54576073      70.54589893      -1.959E-06      9.78    <-- DIS
     389      70.54526836      70.54540865      -1.989E-06      9.80    <-- DIS
     390      70.54478097      70.54492333      -2.018E-06      9.83    <-- DIS
     391      70.54429852      70.54444289      -2.047E-06      9.85    <-- DIS
     392      70.54382093      70.54396729      -2.075E-06      9.88    <-- DIS
     393      70.54334816      70.54349647      -2.102E-06      9.90    <-- DIS
     394      70.54288015      70.54303036      -2.129E-06      9.93    <-- DIS
     395      70.54241683      70.54256893      -2.156E-06      9.95    <-- DIS
     396      70.54195817      70.54211210      -2.182E-06      9.98    <-- DIS
     397      70.54150410      70.54165984      -2.208E-06     10.00    <-- DIS
     398      70.54105456      70.54121208      -2.233E-06     10.03    <-- DIS
     399      70.54060952      70.54076878      -2.258E-06     10.05    <-- DIS
     400      70.54016891      70.54032988      -2.282E-06     10.08    <-- DIS
     401      70.53973269      70.53989533      -2.306E-06     10.10    <-- DIS
     402      70.53930080      70.53946509      -2.329E-06     10.13    <-- DIS
     403      70.53887320      70.53903910      -2.352E-06     10.15    <-- DIS
     404      70.53844983      70.53861732      -2.374E-06     10.18    <-- DIS
     405      70.53803064      70.53819969      -2.396E-06     10.20    <-- DIS
     406      70.53761560      70.53778617      -2.418E-06     10.23    <-- DIS
     407      70.53720465      70.53737671      -2.439E-06     10.25    <-- DIS
     408      70.53679775      70.53697128      -2.460E-06     10.28    <-- DIS
     409      70.53639484      70.53656981      -2.481E-06     10.30    <-- DIS
     410      70.53599589      70.53617227      -2.501E-06     10.33    <-- DIS
     411      70.53560085      70.53577861      -2.520E-06     10.35    <-- DIS
     412      70.53520967      70.53538879      -2.539E-06     10.38    <-- DIS
     413      70.53482231      70.53500277      -2.558E-06     10.41    <-- DIS
     414      70.53443874      70.53462049      -2.577E-06     10.43    <-- DIS
     415      70.53405890      70.53424193      -2.595E-06     10.46    <-- DIS
     416      70.53368275      70.53386704      -2.613E-06     10.48    <-- DIS
     417      70.53331026      70.53349578      -2.630E-06     10.51    <-- DIS
     418      70.53294138      70.53312810      -2.647E-06     10.53    <-- DIS
     419      70.53257607      70.53276397      -2.664E-06     10.56    <-- DIS
     420      70.53221429      70.53240336      -2.681E-06     10.58    <-- DIS
     421      70.53185601      70.53204621      -2.697E-06     10.61    <-- DIS
     422      70.53150118      70.53169249      -2.712E-06     10.63    <-- DIS
     423      70.53114977      70.53134216      -2.728E-06     10.66    <-- DIS
     424      70.53080173      70.53099519      -2.743E-06     10.68    <-- DIS
     425      70.53045704      70.53065154      -2.758E-06     10.71    <-- DIS
     426      70.53011564      70.53031117      -2.772E-06     10.73    <-- DIS
     427      70.52977752      70.52997405      -2.786E-06     10.76    <-- DIS
     428      70.52944263      70.52964014      -2.800E-06     10.78    <-- DIS
     429      70.52911093      70.52930941      -2.814E-06     10.81    <-- DIS
     430      70.52878240      70.52898181      -2.827E-06     10.83    <-- DIS
     431      70.52845699      70.52865733      -2.840E-06     10.86    <-- DIS
     432      70.52813468      70.52833591      -2.853E-06     10.88    <-- DIS
     433      70.52781543      70.52801754      -2.866E-06     10.91    <-- DIS
     434      70.52749920      70.52770217      -2.878E-06     10.93    <-- DIS
     435      70.52718596      70.52738978      -2.890E-06     10.96    <-- DIS
     436      70.52687569      70.52708033      -2.902E-06     10.98    <-- DIS
     437      70.52656834      70.52677379      -2.913E-06     11.01    <-- DIS
     438      70.52626389      70.52647013      -2.924E-06     11.03    <-- DIS
     439      70.52596231      70.52616931      -2.935E-06     11.06    <-- DIS
     440      70.52566356      70.52587132      -2.946E-06     11.08    <-- DIS
     441      70.52536761      70.52557611      -2.956E-06     11.11    <-- DIS
     442      70.52507444      70.52528366      -2.967E-06     11.13    <-- DIS
     443      70.52478402      70.52499394      -2.977E-06     11.15    <-- DIS
     444      70.52449631      70.52470691      -2.986E-06     11.18    <-- DIS
     445      70.52421129      70.52442256      -2.996E-06     11.20    <-- DIS
     446      70.52392892      70.52414085      -3.005E-06     11.23    <-- DIS
     447      70.52364919      70.52386175      -3.014E-06     11.25    <-- DIS
     448      70.52337205      70.52358524      -3.023E-06     11.28    <-- DIS
     449      70.52309749      70.52331129      -3.032E-06     11.30    <-- DIS
     450      70.52282548      70.52303987      -3.040E-06     11.33    <-- DIS
     451      70.52255599      70.52277096      -3.048E-06     11.35    <-- DIS
     452      70.52228899      70.52250452      -3.056E-06     11.38    <-- DIS
     453      70.52202446      70.52224054      -3.064E-06     11.40    <-- DIS
     454      70.52176237      70.52197898      -3.072E-06     11.43    <-- DIS
     455      70.52150269      70.52171983      -3.079E-06     11.45    <-- DIS
     456      70.52124541      70.52146305      -3.086E-06     11.48    <-- DIS
     457      70.52099049      70.52120863      -3.093E-06     11.50    <-- DIS
     458      70.52073791      70.52095653      -3.100E-06     11.53    <-- DIS
     459      70.52048765      70.52070674      -3.107E-06     11.56    <-- DIS
     460      70.52023968      70.52045922      -3.113E-06     11.58    <-- DIS
     461      70.51999398      70.52021396      -3.119E-06     11.61    <-- DIS
     462      70.51975052      70.51997093      -3.126E-06     11.63    <-- DIS
     463      70.51950929      70.51973012      -3.131E-06     11.66    <-- DIS
     464      70.51927025      70.51949149      -3.137E-06     11.68    <-- DIS
     465      70.51903339      70.51925502      -3.143E-06     11.71    <-- DIS
     466      70.51879869      70.51902069      -3.148E-06     11.73    <-- DIS
     467      70.51856611      70.51878849      -3.153E-06     11.76    <-- DIS
     468      70.51833565      70.51855838      -3.158E-06     11.78    <-- DIS
     469      70.51810727      70.51833035      -3.163E-06     11.81    <-- DIS
     470      70.51788096      70.51810437      -3.168E-06     11.83    <-- DIS
     471      70.51765669      70.51788043      -3.173E-06     11.86    <-- DIS
     472      70.51743445      70.51765850      -3.177E-06     11.88    <-- DIS
     473      70.51721421      70.51743856      -3.181E-06     11.91    <-- DIS
     474      70.51699596      70.51722060      -3.186E-06     11.93    <-- DIS
     475      70.51677967      70.51700459      -3.190E-06     11.96    <-- DIS
     476      70.51656532      70.51679051      -3.193E-06     11.98    <-- DIS
     477      70.51635289      70.51657835      -3.197E-06     12.01    <-- DIS
     478      70.51614237      70.51636808      -3.201E-06     12.03    <-- DIS
     479      70.51593374      70.51615969      -3.204E-06     12.06    <-- DIS
     480      70.51572697      70.51595315      -3.207E-06     12.08    <-- DIS
     481      70.51552205      70.51574845      -3.211E-06     12.11    <-- DIS
     482      70.51531895      70.51554557      -3.214E-06     12.13    <-- DIS
     483      70.51511767      70.51534449      -3.217E-06     12.16    <-- DIS
     484      70.51491818      70.51514519      -3.219E-06     12.18    <-- DIS
     485      70.51472046      70.51494766      -3.222E-06     12.21    <-- DIS
     486      70.51452450      70.51475187      -3.224E-06     12.23    <-- DIS
     487      70.51433028      70.51455782      -3.227E-06     12.26    <-- DIS
     488      70.51413778      70.51436547      -3.229E-06     12.28    <-- DIS
     489      70.51394698      70.51417483      -3.231E-06     12.31    <-- DIS
     490      70.51375787      70.51398586      -3.233E-06     12.33    <-- DIS
     491      70.51357043      70.51379856      -3.235E-06     12.36    <-- DIS
     492      70.51338465      70.51361290      -3.237E-06     12.39    <-- DIS
     493      70.51320051      70.51342887      -3.239E-06     12.42    <-- DIS
     494      70.51301798      70.51324645      -3.240E-06     12.44    <-- DIS
     495      70.51283706      70.51306564      -3.242E-06     12.47    <-- DIS
     496      70.51265773      70.51288640      -3.243E-06     12.49    <-- DIS
     497      70.51247998      70.51270873      -3.244E-06     12.52    <-- DIS
     498      70.51230378      70.51253261      -3.245E-06     12.54    <-- DIS
     499      70.51212913      70.51235803      -3.246E-06     12.57    <-- DIS
     500      70.51195601      70.51218497      -3.247E-06     12.59    <-- DIS
     501      70.51178439      70.51201342      -3.248E-06     12.62    <-- DIS
     502      70.51161428      70.51184336      -3.249E-06     12.64    <-- DIS
     503      70.51144565      70.51167477      -3.249E-06     12.67    <-- DIS
     504      70.51127849      70.51150765      -3.250E-06     12.69    <-- DIS
     505      70.51111279      70.51134197      -3.250E-06     12.72    <-- DIS
     506      70.51094853      70.51117773      -3.251E-06     12.74    <-- DIS
     507      70.51078569      70.51101491      -3.251E-06     12.77    <-- DIS
     508      70.51062427      70.51085350      -3.251E-06     12.79    <-- DIS
     509      70.51046425      70.51069348      -3.251E-06     12.82    <-- DIS
     510      70.51030561      70.51053484      -3.251E-06     12.84    <-- DIS
     511      70.51014835      70.51037757      -3.251E-06     12.87    <-- DIS
     512      70.50999245      70.51022165      -3.251E-06     12.89    <-- DIS
     513      70.50983789      70.51006707      -3.250E-06     12.92    <-- DIS
     514      70.50968467      70.50991382      -3.250E-06     12.94    <-- DIS
     515      70.50953276      70.50976188      -3.249E-06     12.97    <-- DIS
     516      70.50938217      70.50961124      -3.249E-06     12.99    <-- DIS
     517      70.50923287      70.50946190      -3.248E-06     13.02    <-- DIS
     518      70.50908485      70.50931383      -3.247E-06     13.04    <-- DIS
     519      70.50893811      70.50916703      -3.247E-06     13.07    <-- DIS
     520      70.50879262      70.50902148      -3.246E-06     13.09    <-- DIS
     521      70.50864838      70.50887718      -3.245E-06     13.12    <-- DIS
     522      70.50850538      70.50873410      -3.244E-06     13.14    <-- DIS
     523      70.50836360      70.50859224      -3.243E-06     13.17    <-- DIS
     524      70.50822303      70.50845159      -3.242E-06     13.19    <-- DIS
     525      70.50808366      70.50831213      -3.240E-06     13.22    <-- DIS
     526      70.50794548      70.50817386      -3.239E-06     13.24    <-- DIS
     527      70.50780848      70.50803676      -3.238E-06     13.27    <-- DIS
     528      70.50767265      70.50790082      -3.236E-06     13.29    <-- DIS
     529      70.50753797      70.50776603      -3.235E-06     13.32    <-- DIS
     530      70.50740443      70.50763238      -3.233E-06     13.34    <-- DIS
     531      70.50727203      70.50749986      -3.231E-06     13.37    <-- DIS
     532      70.50714076      70.50736846      -3.230E-06     13.39    <-- DIS
     533      70.50701059      70.50723817      -3.228E-06     13.42    <-- DIS
     534      70.50688153      70.50710898      -3.226E-06     13.44    <-- DIS
     535      70.50675356      70.50698088      -3.224E-06     13.47    <-- DIS
     536      70.50662668      70.50685385      -3.222E-06     13.49    <-- DIS
     537      70.50650086      70.50672789      -3.220E-06     13.52    <-- DIS
     538      70.50637611      70.50660298      -3.218E-06     13.54    <-- DIS
     539      70.50625241      70.50647913      -3.216E-06     13.57    <-- DIS
     540      70.50612975      70.50635631      -3.213E-06     13.59    <-- DIS
     541      70.50600813      70.50623453      -3.211E-06     13.62    <-- DIS
     542      70.50588752      70.50611376      -3.209E-06     13.64    <-- DIS
     543      70.50576793      70.50599400      -3.206E-06     13.66    <-- DIS
     544      70.50564935      70.50587524      -3.204E-06     13.69    <-- DIS
     545      70.50553176      70.50575747      -3.201E-06     13.71    <-- DIS
     546      70.50541516      70.50564069      -3.199E-06     13.74    <-- DIS
     547      70.50529953      70.50552488      -3.196E-06     13.76    <-- DIS
     548      70.50518487      70.50541003      -3.193E-06     13.79    <-- DIS
     549      70.50507117      70.50529614      -3.191E-06     13.81    <-- DIS
     550      70.50495842      70.50518319      -3.188E-06     13.84    <-- DIS
     551      70.50484661      70.50507118      -3.185E-06     13.86    <-- DIS
     552      70.50473574      70.50496010      -3.182E-06     13.89    <-- DIS
     553      70.50462579      70.50484995      -3.179E-06     13.91    <-- DIS
     554      70.50451675      70.50474070      -3.176E-06     13.94    <-- DIS
     555      70.50440863      70.50463236      -3.173E-06     13.96    <-- DIS
     556      70.50430140      70.50452492      -3.170E-06     13.99    <-- DIS
     557      70.50419506      70.50441836      -3.167E-06     14.01    <-- DIS
     558      70.50408961      70.50431268      -3.164E-06     14.04    <-- DIS
     559      70.50398503      70.50420788      -3.161E-06     14.06    <-- DIS
     560      70.50388132      70.50410393      -3.157E-06     14.09    <-- DIS
     561      70.50377847      70.50400085      -3.154E-06     14.11    <-- DIS
     562      70.50367647      70.50389861      -3.151E-06     14.14    <-- DIS
     563      70.50357531      70.50379722      -3.147E-06     14.17    <-- DIS
     564      70.50347499      70.50369665      -3.144E-06     14.19    <-- DIS
     565      70.50337550      70.50359692      -3.141E-06     14.22    <-- DIS
     566      70.50327682      70.50349800      -3.137E-06     14.24    <-- DIS
     567      70.50317897      70.50339989      -3.134E-06     14.27    <-- DIS
     568      70.50308192      70.50330259      -3.130E-06     14.29    <-- DIS
     569      70.50298567      70.50320608      -3.126E-06     14.32    <-- DIS
     570      70.50289021      70.50311036      -3.123E-06     14.34    <-- DIS
     571      70.50279553      70.50301543      -3.119E-06     14.37    <-- DIS
     572      70.50270164      70.50292127      -3.115E-06     14.39    <-- DIS
     573      70.50260851      70.50282788      -3.111E-06     14.42    <-- DIS
     574      70.50251615      70.50273525      -3.108E-06     14.45    <-- DIS
     575      70.50242455      70.50264338      -3.104E-06     14.47    <-- DIS
     576      70.50233370      70.50255225      -3.100E-06     14.50    <-- DIS
     577      70.50224359      70.50246186      -3.096E-06     14.52    <-- DIS
     578      70.50215422      70.50237221      -3.092E-06     14.55    <-- DIS
     579      70.50206558      70.50228329      -3.088E-06     14.57    <-- DIS
     580      70.50197767      70.50219509      -3.084E-06     14.60    <-- DIS
     581      70.50189047      70.50210761      -3.080E-06     14.62    <-- DIS
     582      70.50180398      70.50202084      -3.076E-06     14.65    <-- DIS
     583      70.50171820      70.50193477      -3.072E-06     14.67    <-- DIS
     584      70.50163312      70.50184939      -3.068E-06     14.70    <-- DIS
     585      70.50154873      70.50176471      -3.063E-06     14.72    <-- DIS
     586      70.50146503      70.50168071      -3.059E-06     14.75    <-- DIS
     587      70.50138201      70.50159739      -3.055E-06     14.77    <-- DIS
     588      70.50129966      70.50151475      -3.051E-06     14.80    <-- DIS
     589      70.50121799      70.50143277      -3.046E-06     14.82    <-- DIS
     590      70.50113697      70.50135145      -3.042E-06     14.85    <-- DIS
     591      70.50105662      70.50127079      -3.038E-06     14.87    <-- DIS
     592      70.50097691      70.50119077      -3.033E-06     14.90    <-- DIS
     593      70.50089785      70.50111140      -3.029E-06     14.93    <-- DIS
     594      70.50081944      70.50103267      -3.025E-06     14.95    <-- DIS
     595      70.50074165      70.50095457      -3.020E-06     14.98    <-- DIS
     596      70.50066450      70.50087710      -3.016E-06     15.00    <-- DIS
     597      70.50058797      70.50080025      -3.011E-06     15.03    <-- DIS
     598      70.50051205      70.50072402      -3.007E-06     15.05    <-- DIS
     599      70.50043675      70.50064840      -3.002E-06     15.08    <-- DIS
     600      70.50036206      70.50057338      -2.997E-06     15.10    <-- DIS
     601      70.50028797      70.50049897      -2.993E-06     15.13    <-- DIS
     602      70.50021448      70.50042515      -2.988E-06     15.15    <-- DIS
     603      70.50014157      70.50035192      -2.984E-06     15.18    <-- DIS
     604      70.50006926      70.50027927      -2.979E-06     15.20    <-- DIS
     605      70.49999753      70.50020721      -2.974E-06     15.22    <-- DIS
     606      70.49992637      70.50013572      -2.969E-06     15.25    <-- DIS
     607      70.49985578      70.50006480      -2.965E-06     15.27    <-- DIS
     608      70.49978577      70.49999444      -2.960E-06     15.30    <-- DIS
     609      70.49971631      70.49992465      -2.955E-06     15.32    <-- DIS
     610      70.49964741      70.49985541      -2.950E-06     15.35    <-- DIS
     611      70.49957906      70.49978672      -2.946E-06     15.37    <-- DIS
     612      70.49951126      70.49971858      -2.941E-06     15.40    <-- DIS
     613      70.49944401      70.49965098      -2.936E-06     15.42    <-- DIS
     614      70.49937729      70.49958392      -2.931E-06     15.45    <-- DIS
     615      70.49931110      70.49951739      -2.926E-06     15.47    <-- DIS
     616      70.49924545      70.49945139      -2.921E-06     15.50    <-- DIS
     617      70.49918032      70.49938591      -2.916E-06     15.52    <-- DIS
     618      70.49911571      70.49932095      -2.911E-06     15.55    <-- DIS
     619      70.49905161      70.49925650      -2.906E-06     15.57    <-- DIS
     620      70.49898803      70.49919257      -2.901E-06     15.60    <-- DIS
     621      70.49892495      70.49912914      -2.896E-06     15.62    <-- DIS
     622      70.49886237      70.49906621      -2.891E-06     15.65    <-- DIS
     623      70.49880030      70.49900377      -2.886E-06     15.67    <-- DIS
     624      70.49873871      70.49894184      -2.881E-06     15.70    <-- DIS
     625      70.49867762      70.49888039      -2.876E-06     15.72    <-- DIS
     626      70.49861701      70.49881942      -2.871E-06     15.75    <-- DIS
     627      70.49855689      70.49875893      -2.866E-06     15.77    <-- DIS
     628      70.49849724      70.49869893      -2.861E-06     15.80    <-- DIS
     629      70.49843807      70.49863939      -2.856E-06     15.82    <-- DIS
     630      70.49837936      70.49858032      -2.851E-06     15.85    <-- DIS
     631      70.49832112      70.49852172      -2.845E-06     15.87    <-- DIS
     632      70.49826334      70.49846358      -2.840E-06     15.90    <-- DIS
     633      70.49820602      70.49840589      -2.835E-06     15.92    <-- DIS
     634      70.49814916      70.49834866      -2.830E-06     15.95    <-- DIS
     635      70.49809274      70.49829188      -2.825E-06     15.97    <-- DIS
     636      70.49803677      70.49823554      -2.819E-06     16.00    <-- DIS
     637      70.49798124      70.49817964      -2.814E-06     16.02    <-- DIS
     638      70.49792616      70.49812418      -2.809E-06     16.05    <-- DIS
     639      70.49787150      70.49806916      -2.804E-06     16.07    <-- DIS
     640      70.49781728      70.49801457      -2.798E-06     16.10    <-- DIS
     641      70.49776349      70.49796040      -2.793E-06     16.12    <-- DIS
     642      70.49771012      70.49790666      -2.788E-06     16.15    <-- DIS
     643      70.49765717      70.49785334      -2.783E-06     16.18    <-- DIS
     644      70.49760464      70.49780043      -2.777E-06     16.20    <-- DIS
     645      70.49755252      70.49774794      -2.772E-06     16.23    <-- DIS
     646      70.49750081      70.49769585      -2.767E-06     16.25    <-- DIS
     647      70.49744951      70.49764418      -2.761E-06     16.28    <-- DIS
     648      70.49739862      70.49759290      -2.756E-06     16.30    <-- DIS
     649      70.49734812      70.49754203      -2.751E-06     16.33    <-- DIS
     650      70.49729802      70.49749155      -2.745E-06     16.35    <-- DIS
     651      70.49724831      70.49744146      -2.740E-06     16.38    <-- DIS
     652      70.49719900      70.49739177      -2.734E-06     16.40    <-- DIS
     653      70.49715007      70.49734246      -2.729E-06     16.43    <-- DIS
     654      70.49710152      70.49729353      -2.724E-06     16.46    <-- DIS
     655      70.49705336      70.49724499      -2.718E-06     16.48    <-- DIS
     656      70.49700557      70.49719682      -2.713E-06     16.51    <-- DIS
     657      70.49695816      70.49714902      -2.707E-06     16.53    <-- DIS
     658      70.49691112      70.49710160      -2.702E-06     16.56    <-- DIS
     659      70.49686445      70.49705454      -2.697E-06     16.58    <-- DIS
     660      70.49681814      70.49700785      -2.691E-06     16.61    <-- DIS
     661      70.49677220      70.49696152      -2.686E-06     16.63    <-- DIS
     662      70.49672661      70.49691555      -2.680E-06     16.66    <-- DIS
     663      70.49668138      70.49686994      -2.675E-06     16.68    <-- DIS
     664      70.49663650      70.49682468      -2.669E-06     16.71    <-- DIS
     665      70.49659198      70.49677976      -2.664E-06     16.73    <-- DIS
     666      70.49654780      70.49673520      -2.658E-06     16.76    <-- DIS
     667      70.49650397      70.49669098      -2.653E-06     16.78    <-- DIS
     668      70.49646047      70.49664710      -2.647E-06     16.81    <-- DIS
     669      70.49641732      70.49660356      -2.642E-06     16.83    <-- DIS
     670      70.49637451      70.49656035      -2.636E-06     16.86    <-- DIS
     671      70.49633202      70.49651748      -2.631E-06     16.88    <-- DIS
     672      70.49628987      70.49647494      -2.625E-06     16.91    <-- DIS
     673      70.49624805      70.49643273      -2.620E-06     16.93    <-- DIS
     674      70.49620655      70.49639084      -2.614E-06     16.96    <-- DIS
     675      70.49616538      70.49634928      -2.609E-06     16.98    <-- DIS
     676      70.49612452      70.49630803      -2.603E-06     17.01    <-- DIS
     677      70.49608398      70.49626711      -2.598E-06     17.03    <-- DIS
     678      70.49604376      70.49622649      -2.592E-06     17.06    <-- DIS
     679      70.49600385      70.49618619      -2.587E-06     17.08    <-- DIS
     680      70.49596425      70.49614620      -2.581E-06     17.11    <-- DIS
     681      70.49592496      70.49610652      -2.575E-06     17.13    <-- DIS
     682      70.49588597      70.49606714      -2.570E-06     17.16    <-- DIS
     683      70.49584729      70.49602806      -2.564E-06     17.18    <-- DIS
     684      70.49580890      70.49598928      -2.559E-06     17.21    <-- DIS
     685      70.49577081      70.49595080      -2.553E-06     17.23    <-- DIS
     686      70.49573302      70.49591262      -2.548E-06     17.26    <-- DIS
     687      70.49569552      70.49587473      -2.542E-06     17.28    <-- DIS
     688      70.49565831      70.49583713      -2.536E-06     17.31    <-- DIS
     689      70.49562139      70.49579981      -2.531E-06     17.33    <-- DIS
     690      70.49558476      70.49576278      -2.525E-06     17.36    <-- DIS
     691      70.49554840      70.49572604      -2.520E-06     17.38    <-- DIS
     692      70.49551233      70.49568957      -2.514E-06     17.41    <-- DIS
     693      70.49547654      70.49565339      -2.509E-06     17.43    <-- DIS
     694      70.49544102      70.49561748      -2.503E-06     17.46    <-- DIS
     695      70.49540578      70.49558184      -2.497E-06     17.48    <-- DIS
     696      70.49537081      70.49554648      -2.492E-06     17.51    <-- DIS
     697      70.49533611      70.49551139      -2.486E-06     17.54    <-- DIS
     698      70.49530168      70.49547656      -2.481E-06     17.56    <-- DIS
     699      70.49526752      70.49544200      -2.475E-06     17.59    <-- DIS
     700      70.49523362      70.49540771      -2.470E-06     17.61    <-- DIS
     701      70.49519997      70.49537367      -2.464E-06     17.63    <-- DIS
     702      70.49516659      70.49533990      -2.458E-06     17.66    <-- DIS
     703      70.49513347      70.49530638      -2.453E-06     17.68    <-- DIS
     704      70.49510060      70.49527312      -2.447E-06     17.71    <-- DIS
     705      70.49506798      70.49524011      -2.442E-06     17.73    <-- DIS
     706      70.49503562      70.49520735      -2.436E-06     17.76    <-- DIS
     707      70.49500350      70.49517484      -2.431E-06     17.78    <-- DIS
     708      70.49497164      70.49514258      -2.425E-06     17.81    <-- DIS
     709      70.49494001      70.49511056      -2.419E-06     17.83    <-- DIS
     710      70.49490863      70.49507879      -2.414E-06     17.86    <-- DIS
     711      70.49487749      70.49504726      -2.408E-06     17.88    <-- DIS
     712      70.49484659      70.49501596      -2.403E-06     17.91    <-- DIS
     713      70.49481593      70.49498491      -2.397E-06     17.93    <-- DIS
     714      70.49478550      70.49495409      -2.391E-06     17.96    <-- DIS
     715      70.49475531      70.49492350      -2.386E-06     17.98    <-- DIS
     716      70.49472535      70.49489315      -2.380E-06     18.01    <-- DIS
     717      70.49469562      70.49486303      -2.375E-06     18.03    <-- DIS
     718      70.49466612      70.49483313      -2.369E-06     18.06    <-- DIS
     719      70.49463684      70.49480346      -2.364E-06     18.08    <-- DIS
     720      70.49460779      70.49477402      -2.358E-06     18.11    <-- DIS
     721      70.49457896      70.49474479      -2.352E-06     18.13    <-- DIS
     722      70.49455035      70.49471579      -2.347E-06     18.16    <-- DIS
     723      70.49452196      70.49468701      -2.341E-06     18.18    <-- DIS
     724      70.49449379      70.49465845      -2.336E-06     18.21    <-- DIS
     725      70.49446583      70.49463010      -2.330E-06     18.23    <-- DIS
     726      70.49443809      70.49460197      -2.325E-06     18.26    <-- DIS
     727      70.49441056      70.49457405      -2.319E-06     18.28    <-- DIS
     728      70.49438324      70.49454634      -2.314E-06     18.31    <-- DIS
     729      70.49435613      70.49451884      -2.308E-06     18.33    <-- DIS
     730      70.49432923      70.49449154      -2.303E-06     18.36    <-- DIS
     731      70.49430253      70.49446446      -2.297E-06     18.38    <-- DIS
     732      70.49427604      70.49443757      -2.291E-06     18.41    <-- DIS
     733      70.49424975      70.49441089      -2.286E-06     18.44    <-- DIS
     734      70.49422366      70.49438441      -2.280E-06     18.47    <-- DIS
     735      70.49419777      70.49435813      -2.275E-06     18.49    <-- DIS
     736      70.49417208      70.49433205      -2.269E-06     18.52    <-- DIS
     737      70.49414658      70.49430617      -2.264E-06     18.54    <-- DIS
     738      70.49412128      70.49428048      -2.258E-06     18.57    <-- DIS
     739      70.49409617      70.49425498      -2.253E-06     18.59    <-- DIS
     740      70.49407125      70.49422968      -2.247E-06     18.62    <-- DIS
     741      70.49404653      70.49420456      -2.242E-06     18.64    <-- DIS
     742      70.49402199      70.49417964      -2.236E-06     18.67    <-- DIS
     743      70.49399764      70.49415490      -2.231E-06     18.69    <-- DIS
     744      70.49397347      70.49413035      -2.225E-06     18.72    <-- DIS
     745      70.49394949      70.49410598      -2.220E-06     18.74    <-- DIS
     746      70.49392569      70.49408180      -2.214E-06     18.77    <-- DIS
     747      70.49390208      70.49405779      -2.209E-06     18.79    <-- DIS
     748      70.49387864      70.49403397      -2.203E-06     18.82    <-- DIS
     749      70.49385538      70.49401033      -2.198E-06     18.84    <-- DIS
     750      70.49383230      70.49398686      -2.193E-06     18.86    <-- DIS
     751      70.49380940      70.49396357      -2.187E-06     18.89    <-- DIS
     752      70.49378666      70.49394045      -2.182E-06     18.92    <-- DIS
     753      70.49376411      70.49391751      -2.176E-06     18.94    <-- DIS
     754      70.49374172      70.49389474      -2.171E-06     18.96    <-- DIS
     755      70.49371950      70.49387214      -2.165E-06     18.99    <-- DIS
     756      70.49369746      70.49384971      -2.160E-06     19.01    <-- DIS
     757      70.49367558      70.49382745      -2.154E-06     19.04    <-- DIS
     758      70.49365386      70.49380535      -2.149E-06     19.07    <-- DIS
     759      70.49363231      70.49378342      -2.144E-06     19.09    <-- DIS
     760      70.49361093      70.49376166      -2.138E-06     19.12    <-- DIS
     761      70.49358971      70.49374005      -2.133E-06     19.14    <-- DIS
[...]
     837      70.49236915      70.49249193      -1.742E-06     21.05    <-- DIS
     838      70.49235732      70.49247976      -1.737E-06     21.07    <-- DIS
     839      70.49234557      70.49246767      -1.732E-06     21.10    <-- DIS
     840      70.49233392      70.49245567      -1.727E-06     21.12    <-- DIS
     841      70.49232235      70.49244377      -1.722E-06     21.15    <-- DIS
     842      70.49231087      70.49243195      -1.718E-06     21.17    <-- DIS
     843      70.49229947      70.49242021      -1.713E-06     21.20    <-- DIS
     844      70.49228816      70.49240857      -1.708E-06     21.22    <-- DIS
     845      70.49227694      70.49239701      -1.703E-06     21.25    <-- DIS
     846      70.49226580      70.49238553      -1.698E-06     21.27    <-- DIS
     847      70.49225474      70.49237414      -1.694E-06     21.30    <-- DIS
     848      70.49224377      70.49236283      -1.689E-06     21.32    <-- DIS
     849      70.49223288      70.49235161      -1.684E-06     21.35    <-- DIS
     850      70.49222207      70.49234046      -1.679E-06     21.37    <-- DIS
     851      70.49221135      70.49232940      -1.675E-06     21.40    <-- DIS
     852      70.49220070      70.49231842      -1.670E-06     21.42    <-- DIS
     853      70.49219013      70.49230753      -1.665E-06     21.45    <-- DIS
     854      70.49217965      70.49229671      -1.661E-06     21.47    <-- DIS
     855      70.49216924      70.49228597      -1.656E-06     21.50    <-- DIS
     856      70.49215891      70.49227531      -1.651E-06     21.52    <-- DIS
     857      70.49214866      70.49226473      -1.647E-06     21.55    <-- DIS
     858      70.49213848      70.49225423      -1.642E-06     21.57    <-- DIS
     859      70.49212839      70.49224380      -1.637E-06     21.60    <-- DIS
     860      70.49211836      70.49223345      -1.633E-06     21.62    <-- DIS
     861      70.49210842      70.49222318      -1.628E-06     21.65    <-- DIS
     862      70.49209855      70.49221298      -1.623E-06     21.67    <-- DIS
     863      70.49208875      70.49220286      -1.619E-06     21.70    <-- DIS
     864      70.49207902      70.49219281      -1.614E-06     21.72    <-- DIS
     865      70.49206937      70.49218283      -1.610E-06     21.75    <-- DIS
     866      70.49205979      70.49217293      -1.605E-06     21.77    <-- DIS
     867      70.49205029      70.49216310      -1.600E-06     21.80    <-- DIS
     868      70.49204085      70.49215334      -1.596E-06     21.82    <-- DIS
     869      70.49203149      70.49214366      -1.591E-06     21.85    <-- DIS
     870      70.49202220      70.49213404      -1.587E-06     21.87    <-- DIS
     871      70.49201297      70.49212450      -1.582E-06     21.90    <-- DIS
     872      70.49200382      70.49211502      -1.578E-06     21.92    <-- DIS
     873      70.49199473      70.49210562      -1.573E-06     21.95    <-- DIS
     874      70.49198572      70.49209628      -1.568E-06     21.97    <-- DIS
     875      70.49197677      70.49208701      -1.564E-06     22.00    <-- DIS
     876      70.49196788      70.49207781      -1.559E-06     22.02    <-- DIS
     877      70.49195907      70.49206868      -1.555E-06     22.05    <-- DIS
     878      70.49195032      70.49205962      -1.551E-06     22.07    <-- DIS
     879      70.49194164      70.49205062      -1.546E-06     22.10    <-- DIS
     880      70.49193302      70.49204169      -1.542E-06     22.12    <-- DIS
     881      70.49192446      70.49203282      -1.537E-06     22.15    <-- DIS
     882      70.49191597      70.49202402      -1.533E-06     22.17    <-- DIS
     883      70.49190755      70.49201528      -1.528E-06     22.20    <-- DIS
     884      70.49189919      70.49200660      -1.524E-06     22.22    <-- DIS
     885      70.49189089      70.49199799      -1.519E-06     22.25    <-- DIS
     886      70.49188265      70.49198945      -1.515E-06     22.27    <-- DIS
     887      70.49187448      70.49198096      -1.511E-06     22.30    <-- DIS
     888      70.49186636      70.49197254      -1.506E-06     22.32    <-- DIS
     889      70.49185831      70.49196418      -1.502E-06     22.35    <-- DIS
     890      70.49185032      70.49195588      -1.497E-06     22.37    <-- DIS
     891      70.49184239      70.49194764      -1.493E-06     22.40    <-- DIS
     892      70.49183452      70.49193946      -1.489E-06     22.43    <-- DIS
     893      70.49182670      70.49193134      -1.484E-06     22.46    <-- DIS
     894      70.49181895      70.49192328      -1.480E-06     22.48    <-- DIS
     895      70.49181125      70.49191528      -1.476E-06     22.51    <-- DIS
     896      70.49180361      70.49190734      -1.471E-06     22.53    <-- DIS
     897      70.49179603      70.49189945      -1.467E-06     22.56    <-- DIS
     898      70.49178851      70.49189162      -1.463E-06     22.58    <-- DIS
     899      70.49178104      70.49188385      -1.459E-06     22.61    <-- DIS
     900      70.49177363      70.49187614      -1.454E-06     22.63    <-- DIS
     901      70.49176628      70.49186849      -1.450E-06     22.66    <-- DIS
     902      70.49175898      70.49186089      -1.446E-06     22.68    <-- DIS
     903      70.49175173      70.49185334      -1.441E-06     22.71    <-- DIS
     904      70.49174454      70.49184585      -1.437E-06     22.73    <-- DIS
     905      70.49173740      70.49183842      -1.433E-06     22.76    <-- DIS
     906      70.49173032      70.49183103      -1.429E-06     22.78    <-- DIS
     907      70.49172329      70.49182371      -1.425E-06     22.81    <-- DIS
     908      70.49171631      70.49181643      -1.420E-06     22.83    <-- DIS
     909      70.49170939      70.49180921      -1.416E-06     22.86    <-- DIS
     910      70.49170252      70.49180205      -1.412E-06     22.88    <-- DIS
     911      70.49169569      70.49179493      -1.408E-06     22.91    <-- DIS
     912      70.49168893      70.49178787      -1.404E-06     22.93    <-- DIS
     913      70.49168221      70.49178086      -1.399E-06     22.96    <-- DIS
     914      70.49167554      70.49177390      -1.395E-06     22.98    <-- DIS
     915      70.49166892      70.49176699      -1.391E-06     23.01    <-- DIS
     916      70.49166235      70.49176013      -1.387E-06     23.03    <-- DIS
     917      70.49165583      70.49175332      -1.383E-06     23.06    <-- DIS
     918      70.49164936      70.49174656      -1.379E-06     23.08    <-- DIS
     919      70.49164294      70.49173985      -1.375E-06     23.11    <-- DIS
     920      70.49163657      70.49173319      -1.371E-06     23.13    <-- DIS
     921      70.49163024      70.49172657      -1.367E-06     23.16    <-- DIS
     922      70.49162397      70.49172001      -1.362E-06     23.18    <-- DIS
     923      70.49161774      70.49171349      -1.358E-06     23.21    <-- DIS
     924      70.49161155      70.49170702      -1.354E-06     23.23    <-- DIS
     925      70.49160542      70.49170060      -1.350E-06     23.26    <-- DIS
     926      70.49159933      70.49169423      -1.346E-06     23.28    <-- DIS
     927      70.49159328      70.49168790      -1.342E-06     23.31    <-- DIS
     928      70.49158728      70.49168162      -1.338E-06     23.33    <-- DIS
     929      70.49158133      70.49167538      -1.334E-06     23.36    <-- DIS
     930      70.49157542      70.49166919      -1.330E-06     23.38    <-- DIS
     931      70.49156955      70.49166304      -1.326E-06     23.41    <-- DIS
     932      70.49156373      70.49165694      -1.322E-06     23.43    <-- DIS
     933      70.49155796      70.49165088      -1.318E-06     23.46    <-- DIS
     934      70.49155222      70.49164487      -1.314E-06     23.49    <-- DIS
     935      70.49154653      70.49163890      -1.310E-06     23.51    <-- DIS
     936      70.49154088      70.49163298      -1.306E-06     23.54    <-- DIS
     937      70.49153528      70.49162709      -1.303E-06     23.56    <-- DIS
     938      70.49152972      70.49162126      -1.299E-06     23.59    <-- DIS
     939      70.49152419      70.49161546      -1.295E-06     23.61    <-- DIS
     940      70.49151871      70.49160970      -1.291E-06     23.64    <-- DIS
     941      70.49151328      70.49160399      -1.287E-06     23.66    <-- DIS
     942      70.49150788      70.49159832      -1.283E-06     23.69    <-- DIS
     943      70.49150252      70.49159269      -1.279E-06     23.71    <-- DIS
     944      70.49149721      70.49158710      -1.275E-06     23.74    <-- DIS
     945      70.49149193      70.49158155      -1.271E-06     23.76    <-- DIS
     946      70.49148669      70.49157604      -1.268E-06     23.79    <-- DIS
     947      70.49148150      70.49157058      -1.264E-06     23.81    <-- DIS
     948      70.49147634      70.49156515      -1.260E-06     23.84    <-- DIS
     949      70.49147122      70.49155976      -1.256E-06     23.86    <-- DIS
     950      70.49146614      70.49155441      -1.252E-06     23.89    <-- DIS
     951      70.49146110      70.49154910      -1.248E-06     23.91    <-- DIS
     952      70.49145609      70.49154383      -1.245E-06     23.94    <-- DIS
     953      70.49145112      70.49153860      -1.241E-06     23.96    <-- DIS
     954      70.49144619      70.49153340      -1.237E-06     23.98    <-- DIS
     955      70.49144130      70.49152824      -1.233E-06     24.01    <-- DIS
     956      70.49143645      70.49152312      -1.230E-06     24.03    <-- DIS
     957      70.49143163      70.49151804      -1.226E-06     24.06    <-- DIS
     958      70.49142685      70.49151299      -1.222E-06     24.09    <-- DIS
     959      70.49142210      70.49150798      -1.218E-06     24.11    <-- DIS
     960      70.49141739      70.49150301      -1.215E-06     24.14    <-- DIS
     961      70.49141271      70.49149808      -1.211E-06     24.16    <-- DIS
     962      70.49140807      70.49149317      -1.207E-06     24.19    <-- DIS
     963      70.49140347      70.49148831      -1.204E-06     24.21    <-- DIS
     964      70.49139890      70.49148348      -1.200E-06     24.24    <-- DIS
     965      70.49139436      70.49147869      -1.196E-06     24.26    <-- DIS
     966      70.49138986      70.49147393      -1.193E-06     24.29    <-- DIS
     967      70.49138539      70.49146920      -1.189E-06     24.31    <-- DIS
     968      70.49138096      70.49146451      -1.185E-06     24.33    <-- DIS
     969      70.49137656      70.49145985      -1.182E-06     24.36    <-- DIS
     970      70.49137219      70.49145523      -1.178E-06     24.38    <-- DIS
     971      70.49136786      70.49145064      -1.174E-06     24.41    <-- DIS
     972      70.49136356      70.49144608      -1.171E-06     24.43    <-- DIS
     973      70.49135929      70.49144156      -1.167E-06     24.47    <-- DIS
     974      70.49135505      70.49143707      -1.164E-06     24.49    <-- DIS
     975      70.49135085      70.49143261      -1.160E-06     24.52    <-- DIS
     976      70.49134667      70.49142819      -1.156E-06     24.54    <-- DIS
     977      70.49134253      70.49142380      -1.153E-06     24.57    <-- DIS
     978      70.49133842      70.49141944      -1.149E-06     24.59    <-- DIS
     979      70.49133434      70.49141511      -1.146E-06     24.62    <-- DIS
     980      70.49133029      70.49141081      -1.142E-06     24.64    <-- DIS
     981      70.49132627      70.49140654      -1.139E-06     24.67    <-- DIS
     982      70.49132229      70.49140231      -1.135E-06     24.69    <-- DIS
     983      70.49131833      70.49139810      -1.132E-06     24.72    <-- DIS
     984      70.49131440      70.49139393      -1.128E-06     24.74    <-- DIS
     985      70.49131050      70.49138978      -1.125E-06     24.77    <-- DIS
     986      70.49130663      70.49138567      -1.121E-06     24.79    <-- DIS
     987      70.49130280      70.49138158      -1.118E-06     24.82    <-- DIS
     988      70.49129898      70.49137753      -1.114E-06     24.84    <-- DIS
     989      70.49129520      70.49137350      -1.111E-06     24.87    <-- DIS
     990      70.49129145      70.49136951      -1.107E-06     24.89    <-- DIS
     991      70.49128773      70.49136554      -1.104E-06     24.92    <-- DIS
     992      70.49128403      70.49136160      -1.100E-06     24.95    <-- DIS
     993      70.49128036      70.49135769      -1.097E-06     24.97    <-- DIS
     994      70.49127672      70.49135381      -1.094E-06     25.00    <-- DIS
     995      70.49127311      70.49134996      -1.090E-06     25.02    <-- DIS
     996      70.49126952      70.49134613      -1.087E-06     25.04    <-- DIS
     997      70.49126596      70.49134234      -1.083E-06     25.07    <-- DIS
     998      70.49126243      70.49133857      -1.080E-06     25.09    <-- DIS
     999      70.49125892      70.49133483      -1.077E-06     25.12    <-- DIS
    1000      70.49125545      70.49133111      -1.073E-06     25.14    <-- DIS

     <<< Warning: Maximum number of disentanglement iterations reached >>>
          <<< Disentanglement convergence criteria not satisfied >>>

        Final Omega_I    70.49133111 (Ang^2)

 +----------------------------------------------------------------------------+

 Time to disentangle bands     26.161 (sec)

 done

 
 *------------------------------- WANNIERISE ---------------------------------*
 +--------------------------------------------------------------------+<-- CONV
 | Iter  Delta Spread     RMS Gradient      Spread (Ang^2)      Time  |<-- CONV
 +--------------------------------------------------------------------+<-- CONV
 
 ------------------------------------------------------------------------------
 Initial State
  WF centre and spread    1  (  2.836369,  0.000002, 11.350666 )     2.84729140
  WF centre and spread    2  (  2.741494,  0.000000, 11.650393 )     3.42741296
  WF centre and spread    3  (  2.617139,  0.000001, 11.682676 )     3.33025137
  WF centre and spread    4  (  1.751748, -0.000002,-11.350654 )     2.84729833
  WF centre and spread    5  (  1.846605, -0.000001,-11.650405 )     3.42751364
  WF centre and spread    6  (  1.970936, -0.000001,-11.682683 )     3.33043126
  WF centre and spread    7  (  0.542306,  1.647915,-11.350654 )     2.84729863
  WF centre and spread    8  (  0.447451,  1.647916,-11.650406 )     3.42751318
  WF centre and spread    9  (  0.323120,  1.647916,-11.682682 )     3.33043399
  WF centre and spread   10  (  4.045795,  1.647919, 11.350666 )     2.84729179
  WF centre and spread   11  (  4.140668,  1.647917, 11.650394 )     3.42741198
  WF centre and spread   12  (  4.265023,  1.647917, 11.682676 )     3.33025444
  WF centre and spread   13  (  2.836368, -0.000002, 11.350665 )     2.84729508
  WF centre and spread   14  (  2.741496, -0.000001, 11.650393 )     3.42741194
  WF centre and spread   15  (  2.617140, -0.000001, 11.682676 )     3.33025707
  WF centre and spread   16  (  1.751748,  0.000002,-11.350652 )     2.84730263
  WF centre and spread   17  (  1.846605,  0.000000,-11.650406 )     3.42751488
  WF centre and spread   18  (  1.970934,  0.000001,-11.682683 )     3.33043822
  WF centre and spread   19  (  0.542307,  1.647919,-11.350653 )     2.84730182
  WF centre and spread   20  (  0.447449,  1.647917,-11.650405 )     3.42751541
  WF centre and spread   21  (  0.323119,  1.647917,-11.682683 )     3.33043532
  WF centre and spread   22  (  4.045793,  1.647915, 11.350665 )     2.84729540
  WF centre and spread   23  (  4.140668,  1.647916, 11.650393 )     3.42741283
  WF centre and spread   24  (  4.265024,  1.647916, 11.682676 )     3.33025452
  Sum of centres and spreads ( 55.057303, 19.774997, -0.000026 )    76.84083811
 
      0     0.768E+02     0.0000000000       76.8408381170      25.46  <-- CONV
        O_D=      0.7663404 O_OD=      5.5831666 O_TOT=     76.8408381 <-- SPRD
 ------------------------------------------------------------------------------
 Final State
  WF centre and spread    1  (  2.836369,  0.000002, 11.350666 )     2.84729140
  WF centre and spread    2  (  2.741494,  0.000000, 11.650393 )     3.42741296
  WF centre and spread    3  (  2.617139,  0.000001, 11.682676 )     3.33025137
  WF centre and spread    4  (  1.751748, -0.000002,-11.350654 )     2.84729833
  WF centre and spread    5  (  1.846605, -0.000001,-11.650405 )     3.42751364
  WF centre and spread    6  (  1.970936, -0.000001,-11.682683 )     3.33043126
  WF centre and spread    7  (  0.542306,  1.647915,-11.350654 )     2.84729863
  WF centre and spread    8  (  0.447451,  1.647916,-11.650406 )     3.42751318
  WF centre and spread    9  (  0.323120,  1.647916,-11.682682 )     3.33043399
  WF centre and spread   10  (  4.045795,  1.647919, 11.350666 )     2.84729179
  WF centre and spread   11  (  4.140668,  1.647917, 11.650394 )     3.42741198
  WF centre and spread   12  (  4.265023,  1.647917, 11.682676 )     3.33025444
  WF centre and spread   13  (  2.836368, -0.000002, 11.350665 )     2.84729508
  WF centre and spread   14  (  2.741496, -0.000001, 11.650393 )     3.42741194
  WF centre and spread   15  (  2.617140, -0.000001, 11.682676 )     3.33025707
  WF centre and spread   16  (  1.751748,  0.000002,-11.350652 )     2.84730263
  WF centre and spread   17  (  1.846605,  0.000000,-11.650406 )     3.42751488
  WF centre and spread   18  (  1.970934,  0.000001,-11.682683 )     3.33043822
  WF centre and spread   19  (  0.542307,  1.647919,-11.350653 )     2.84730182
  WF centre and spread   20  (  0.447449,  1.647917,-11.650405 )     3.42751541
  WF centre and spread   21  (  0.323119,  1.647917,-11.682683 )     3.33043532
  WF centre and spread   22  (  4.045793,  1.647915, 11.350665 )     2.84729540
  WF centre and spread   23  (  4.140668,  1.647916, 11.650393 )     3.42741283
  WF centre and spread   24  (  4.265024,  1.647916, 11.682676 )     3.33025452
  Sum of centres and spreads ( 55.057303, 19.774997, -0.000026 )    76.84083811
 
         Spreads (Ang^2)       Omega I      =    70.491331110
        ================       Omega D      =     0.766340384
                               Omega OD     =     5.583166623
    Final Spread (Ang^2)       Omega Total  =    76.840838117
 ------------------------------------------------------------------------------
 Time for wannierise            0.041 (sec)

 done

 *---------------------------------------------------------------------------*
 |                               PLOTTING                                    |
 *---------------------------------------------------------------------------*
 
 
 Calculating interpolated band-structure
 
 Time to calculate interpolated band structure      10.678 (sec)
 
 Time for plotting             18.704 (sec)
 Total Execution Time          51.823 (sec)

 *===========================================================================*
 |                             TIMING INFORMATION                            |
 *===========================================================================*
 |    Tag                                                Ncalls      Time (s)|
 |---------------------------------------------------------------------------|
 |kmesh: get                                        :         1         0.222|
 |overlap: allocate                                 :         1         0.004|
 |overlap: read                                     :         1         6.529|
 |dis: main                                         :         1        26.161|
 |wann: main                                        :         1         0.041|
 |plot: main                                        :         1        18.704|
 *---------------------------------------------------------------------------*
 
 All done: wannier90 exiting
